version 2
run OnOff-0-20121202-18:16:40-5032
attr configname OnOff
attr datetime 20121202-18:16:40
attr experiment OnOff
attr inifile omnetpp.ini
attr iterationvars ""
attr iterationvars2 $repetition=0
attr measurement ""
attr network OnOffNetwork
attr processid 5032
attr repetition 0
attr replication #0
attr resultdir results
attr runnumber 0
attr seedset 0

vector 0  OnOffNetwork.sink  arrivals  ETV
attr interpolationmode  none
0	2	0	1
0	4	0.07435166143	1
0	6	0.809603330884	1
0	8	1.000512234058	1
0	10	1.760150464841	1
0	12	2.836990544691	1
0	14	3.156876681545	1
0	16	3.730122538042	1
0	18	3.859251092271	1
0	20	3.971215837265	1
0	22	4.365871154303	1
0	24	4.671982231084	1
0	26	4.938776392652	1
0	28	5.338803407879	1
0	30	5.492568987908	1
0	32	5.524063225381	1
0	34	6.456398150571	1
0	36	6.91101448645	1
0	38	8.039354403135	1
0	40	8.241527358742	1
0	42	8.4730387906	1
0	44	8.484266870066	1
0	46	8.534699881332	1
0	48	9.071848631179	1
0	50	9.387290272704	1
0	52	10.170913495428	1
0	54	11.04391265498	1
0	56	11.440622618368	1
0	58	11.506798666192	1
0	60	12.373666536315	1
0	62	12.529626585775	1
0	64	13.400867929486	1
0	66	14.058521752765	1
0	68	14.761249889898	1
0	70	14.784348729728	1
0	72	15.144811801283	1
0	74	16.545273301048	1
0	76	16.635010171461	1
0	78	16.789606135223	1
0	80	16.868908863576	1
0	82	19.791443895354	1
0	84	20.206871760261	1
0	86	20.552286152606	1
0	88	20.922568714384	1
0	90	21.342215935503	1
0	92	21.452199719335	1
0	94	21.719605977457	1
0	96	22.381686727936	1
0	98	22.423767055551	1
0	100	22.932034634475	1
0	102	23.356703978586	1
0	104	23.696526628274	1
0	106	24.397322453059	1
0	108	24.405291208104	1
0	110	25.824311395183	1
0	112	26.17366305805	1
0	114	26.314508844024	1
0	116	26.341709704261	1
0	118	26.39902654217	1
0	120	26.657964156093	1
0	122	27.793737889499	1
0	124	28.104428639811	1
0	126	28.520237775582	1
0	128	28.73238886873	1
0	130	29.294344760519	1
0	132	29.398092894084	1
0	134	29.442800456398	1
0	136	29.827380991652	1
0	138	30.544624680092	1
0	140	30.773013728727	1
0	142	31.139334026517	1
0	144	31.245392238619	1
0	146	31.290643711324	1
0	148	31.447513907523	1
0	150	32.986658846612	1
0	152	36.102946303516	1
0	154	36.727327777766	1
0	156	36.887709915496	1
0	158	36.995348183648	1
0	160	37.135613803189	1
0	162	37.934574549531	1
0	164	38.095735435048	1
0	166	38.25013307658	1
0	168	39.249028011323	1
0	170	39.255190421613	1
0	172	39.932233002088	1
0	174	39.973741232633	1
0	176	40.243567091083	1
0	178	42.696967032486	1
0	180	43.873314446673	1
0	182	43.927044186999	1
0	184	44.204463764738	1
0	186	44.460666752782	1
0	188	44.798886638433	1
0	190	45.522371298857	1
0	192	46.774977970017	1
0	194	46.807987894988	1
0	196	47.289665973677	1
0	198	47.289996206174	1
0	200	48.185220919635	1
0	202	48.664069319739	1
0	204	49.212979054673	1
0	206	50.264809638866	1
0	208	50.316823875228	1
0	210	50.841906781916	1
0	212	51.879550034522	1
0	214	53.190919797504	1
0	216	53.55439310809	1
0	218	53.786847235791	1
0	220	54.687478927555	1
0	222	55.841518411643	1
0	224	56.046493114622	1
0	226	56.257581054602	1
0	228	56.381193200438	1
0	230	58.303429961827	1
0	232	58.732048677038	1
0	234	59.891184290545	1
0	236	60.058996727582	1
0	238	60.292293166261	1
0	240	60.366216430672	1
0	242	60.980178919797	1
0	244	62.316461905249	1
0	246	62.318389369478	1
0	248	62.328105776017	1
