version 2
run Sim1-0-20121202-18:14:22-6320
attr configname Sim1
attr datetime 20121202-18:14:22
attr experiment Sim1
attr inifile omnetpp.ini
attr iterationvars ""
attr iterationvars2 $repetition=0
attr measurement ""
attr network PoissonGeneratorNetwork
attr processid 6320
attr repetition 0
attr replication #0
attr resultdir results
attr runnumber 0
attr seedset 0

vector 0  PoissonGeneratorNetwork.sink  arrivals  ETV
attr interpolationmode  none
0	1	12	1
0	3	19	1
0	5	28	1
0	7	40	1
0	9	53	1
0	11	64	1
0	13	66	1
0	15	73	1
0	17	85	1
0	19	92	1
0	21	99	1
0	23	105	1
0	25	117	1
0	27	125	1
0	29	130	1
0	31	143	1
0	33	160	1
0	35	171	1
0	37	183	1
0	39	189	1
0	41	199	1
0	43	208	1
0	45	223	1
0	47	233	1
0	49	245	1
0	51	250	1
0	53	258	1
0	55	272	1
0	57	289	1
0	59	300	1
0	61	304	1
0	63	315	1
0	65	321	1
0	67	327	1
0	69	332	1
