version 2
run SCHFifo-0-20121205-17:59:26-3872
attr configname SCHFifo
attr datetime 20121205-17:59:26
attr experiment SCHFifo
attr inifile omnetpp.ini
attr iterationvars ""
attr iterationvars2 $repetition=0
attr measurement ""
attr network tirtproject.Schedulers.SCHFifo
attr processid 3872
attr repetition 0
attr replication #0
attr resultdir results
attr runnumber 0
attr seedset 0

vector 0  SCHFifo.sink  arrivals  ETV
attr interpolationmode  none
0	8	1	1
0	16	2	1
0	18	3	1
0	24	4	1
0	26	5	1
0	28	6	1
0	30	7	1
0	38	8	1
0	40	9	1
0	42	10	1
0	48	11	1
0	54	12	1
0	56	13	1
0	60	14	1
0	68	15	1
0	72	16	1
0	76	17	1
0	80	18	1
0	82	19	1
0	88	20	1
0	92	21	1
0	100	22	1
0	106	23	1
0	114	24	1
0	126	25	1
0	130	26	1
0	136	27	1
0	142	28	1
0	148	29	1
0	158	30	1
0	164	31	1
0	172	32	1
0	180	33	1
0	188	34	1
0	196	35	1
0	198	36	1
0	206	37	1
0	210	38	1
0	216	39	1
0	222	40	1
0	228	41	1
0	232	42	1
0	240	43	1
0	244	44	1
0	248	45	1
0	250	46	1
0	254	47	1
0	256	48	1
0	258	49	1
0	262	50	1
0	266	51	1
