version 2
run SCHRR-0-20121205-17:59:46-4464
attr configname SCHRR
attr datetime 20121205-17:59:46
attr experiment SCHRR
attr inifile omnetpp.ini
attr iterationvars ""
attr iterationvars2 $repetition=0
attr measurement ""
attr network tirtproject.Schedulers.SCHRR
attr processid 4464
attr repetition 0
attr replication #0
attr resultdir results
attr runnumber 0
attr seedset 0

vector 0  SCHRR.sink  arrivals  ETV
attr interpolationmode  none
0	8	1	1
0	16	2.303328915471	1
0	22	4.502394575151	1
0	30	8.347616444292	1
0	36	11.396766602779	1
0	42	12.732056787402	1
0	52	15	1
0	56	16.426580344386	1
0	60	17.432451349552	1
0	64	19	1
0	70	20.625397991605	1
0	76	21.684140706699	1
0	84	22.777960190561	1
0	94	24	1
0	106	25	1
0	110	26	1
0	118	27.5	1
0	126	29	1
0	136	30	1
0	142	31	1
0	150	32.348122107769	1
0	160	33.5	1
0	168	34.5	1
0	174	35.5	1
0	182	37.5	1
0	190	38.802103933287	1
0	198	40.88660998039	1
0	202	41.888886157189	1
0	212	42.944735765848	1
0	216	44.361352310576	1
0	220	45.613959835487	1
0	224	47.5	1
