version 2
run ACBannedIP-0-20121202-19:00:29-2472
attr configname ACBannedIP
attr datetime 20121202-19:00:29
attr experiment ACBannedIP
attr inifile omnetpp.ini
attr iterationvars ""
attr iterationvars2 $repetition=0
attr measurement ""
attr network tirtproject.AdmissionControl.ACBannedIP
attr processid 2472
attr repetition 0
attr replication #0
attr resultdir results
attr runnumber 0
attr seedset 0

vector 0  ACBannedIP.AC  arrivals  ETV
attr interpolationmode  none
vector 1  ACBannedIP.sink  arrivals  ETV
attr interpolationmode  none
0	4	0	1
0	7	0.977006426393	1
0	26	4.291918706321	1
0	29	4.31234429472	1
0	36	5.818128553357	1
0	39	6.553092974546	1
0	56	9.447513452533	1
0	59	9.466482021734	1
0	66	10.426029999102	1
0	69	11.622137798559	1
0	72	11.858344504641	1
0	85	12.310446564865	1
0	114	17.670546915108	1
0	119	18.645648849264	1
0	124	19.358232442597	1
0	127	19.69064268356	1
0	130	19.817031319985	1
0	135	20.061426768066	1
0	138	20.772674705283	1
0	155	23.421930633959	1
0	158	23.426637174451	1
0	175	26.701780352165	1
0	188	30.544786935408	1
0	209	33.670255293066	1
0	214	34.632630348837	1
0	225	35.526359427142	1
0	228	35.9845323111	1
0	237	38.209446968325	1
0	244	40.049179753402	1
0	249	41.933108639988	1
0	262	45.982955478792	1
0	287	47.292253842814	1
0	292	48.229392560537	1
0	301	49.200874718631	1
0	304	49.967954373203	1
0	313	50.219552986315	1
0	316	50.27762534843	1
0	337	54.024319962255	1
0	340	54.268810984297	1
0	343	54.416407017188	1
0	352	56.549970304662	1
0	363	58.610791545542	1
0	366	58.853510039213	1
0	375	59.583737704452	1
0	378	59.825657349223	1
0	385	61.819696550499	1
0	410	63.03869589568	1
0	413	63.125804478938	1
0	434	66.39430087976	1
0	437	66.460392890453	1
0	452	70.25441667354	1
0	457	72.115848316522	1
0	466	75.775505647286	1
0	469	75.922730684599	1
0	472	76.435445327228	1
0	481	78.417335668336	1
0	484	79.909967832528	1
0	487	79.964875205079	1
0	496	81.437079363072	1
0	503	82.831948454335	1
0	506	82.97291633875	1
0	509	83.642219210736	1
0	514	84.385802402512	1
0	517	84.863720390023	1
0	530	86.417465892055	1
0	533	87.303226538084	1
0	536	87.522694698977	1
1	5	0	1
1	8	0.977006426393	1
1	27	4.291918706321	1
1	30	4.31234429472	1
1	37	5.818128553357	1
1	40	6.553092974546	1
1	57	9.447513452533	1
1	60	9.466482021734	1
1	67	10.426029999102	1
1	70	11.622137798559	1
1	73	11.858344504641	1
1	86	12.310446564865	1
1	115	17.670546915108	1
1	120	18.645648849264	1
1	125	19.358232442597	1
1	128	19.69064268356	1
1	131	19.817031319985	1
1	136	20.061426768066	1
1	139	20.772674705283	1
1	156	23.421930633959	1
1	159	23.426637174451	1
1	176	26.701780352165	1
1	189	30.544786935408	1
1	210	33.670255293066	1
1	215	34.632630348837	1
1	226	35.526359427142	1
1	229	35.9845323111	1
1	238	38.209446968325	1
1	245	40.049179753402	1
1	250	41.933108639988	1
1	263	45.982955478792	1
1	288	47.292253842814	1
1	293	48.229392560537	1
1	302	49.200874718631	1
1	305	49.967954373203	1
1	314	50.219552986315	1
1	317	50.27762534843	1
1	338	54.024319962255	1
1	341	54.268810984297	1
1	344	54.416407017188	1
1	353	56.549970304662	1
1	364	58.610791545542	1
1	367	58.853510039213	1
1	376	59.583737704452	1
1	379	59.825657349223	1
1	386	61.819696550499	1
1	411	63.03869589568	1
1	414	63.125804478938	1
1	435	66.39430087976	1
1	438	66.460392890453	1
1	453	70.25441667354	1
1	458	72.115848316522	1
1	467	75.775505647286	1
1	470	75.922730684599	1
1	473	76.435445327228	1
1	482	78.417335668336	1
1	485	79.909967832528	1
1	488	79.964875205079	1
1	497	81.437079363072	1
1	504	82.831948454335	1
1	507	82.97291633875	1
1	510	83.642219210736	1
1	515	84.385802402512	1
1	518	84.863720390023	1
1	531	86.417465892055	1
1	534	87.303226538084	1
1	537	87.522694698977	1
