version 2
run ACBannedIP-0-20121203-19:01:07-5088
attr configname ACBannedIP
attr datetime 20121203-19:01:07
attr experiment ACBannedIP
attr inifile omnetpp.ini
attr iterationvars ""
attr iterationvars2 $repetition=0
attr measurement ""
attr network tirtproject.AdmissionControl.ACBannedIP
attr processid 5088
attr repetition 0
attr replication #0
attr resultdir results
attr runnumber 0
attr seedset 0

vector 0  ACBannedIP.AC  "Arrivals AC"  ETV
attr interpolationmode  none
vector 1  ACBannedIP.sink  arrivals  ETV
attr interpolationmode  none
0	4	0	1
0	7	0.92322313147	1
0	18	1.961382432133	1
0	27	2.279738572974	1
0	30	2.778610581989	1
0	33	3.190188578231	1
0	38	4.977676241669	1
0	49	8.82289811081	1
0	52	8.97762779131	1
0	83	11.872048269297	1
0	94	14.200961643511	1
0	97	15.299874111061	1
0	100	15.437902799489	1
0	103	15.890004859713	1
0	108	16.895875864879	1
0	111	17.954618579973	1
0	124	18.24669911324	1
0	127	18.363654523032	1
0	130	18.745210366406	1
0	133	18.964090962913	1
0	142	20.050360343791	1
0	157	22.155681644583	1
0	160	22.601101106502	1
0	163	22.727489742927	1
1	5	0	1
1	8	0.92322313147	1
1	19	1.961382432133	1
1	28	2.279738572974	1
1	31	2.778610581989	1
1	34	3.190188578231	1
1	39	4.977676241669	1
1	50	8.82289811081	1
1	53	8.97762779131	1
1	84	11.872048269297	1
1	95	14.200961643511	1
1	98	15.299874111061	1
1	101	15.437902799489	1
1	104	15.890004859713	1
1	109	16.895875864879	1
1	112	17.954618579973	1
1	125	18.24669911324	1
1	128	18.363654523032	1
1	131	18.745210366406	1
1	134	18.964090962913	1
1	143	20.050360343791	1
1	158	22.155681644583	1
1	161	22.601101106502	1
1	164	22.727489742927	1
