version 2
run ACBlue-0-20121203-20:02:52-6308
attr configname ACBlue
attr datetime 20121203-20:02:52
attr experiment ACBlue
attr inifile omnetpp.ini
attr iterationvars ""
attr iterationvars2 $repetition=0
attr measurement ""
attr network tirtproject.AdmissionControl.ACBlue
attr processid 6308
attr repetition 0
attr replication #0
attr resultdir results
attr runnumber 0
attr seedset 0

vector 0  ACBlue.AC  "Arrivals AC"  ETV
attr interpolationmode  none
vector 1  ACBlue.sink  arrivals  ETV
attr interpolationmode  none
0	7	1	1
0	10	1	1
0	19	1.92322313147	1
0	23	2	1
0	24	2	1
0	25	2	1
0	26	2	1
0	41	2.961382432133	1
0	43	3	1
0	44	3	1
0	45	3	1
0	51	3.279738572974	1
0	53	3.778610581989	1
0	57	4.190188578231	1
0	61	5	1
0	63	5.977676241669	1
0	69	7	1
0	70	7	1
0	81	9	1
0	82	9	1
0	87	9.82289811081	1
0	89	9.97762779131	1
0	91	10	1
0	106	11	1
0	107	11	1
0	108	11	1
0	109	11	1
0	110	11	1
0	135	12	1
0	136	12	1
0	137	12	1
0	138	12	1
0	145	12.872048269297	1
0	147	13	1
0	153	14	1
0	154	14	1
0	161	15	1
0	163	15.200961643511	1
0	173	16.299874111061	1
0	175	16.437902799489	1
0	177	16.890004859713	1
0	181	17	1
0	183	17.895875864879	1
0	210	19	1
0	214	19.24669911324	1
0	216	19.363654523032	1
0	218	19.745210366406	1
0	220	19.964090962913	1
0	222	20	1
0	230	21	1
0	231	21	1
0	240	21.050360343791	1
0	242	22	1
0	243	22	1
0	244	22	1
0	261	23	1
0	262	23	1
0	269	23.155681644583	1
0	271	23.601101106502	1
0	273	23.727489742927	1
0	275	24	1
0	276	24	1
0	285	25	1
0	286	25	1
0	297	25.851726939928	1
0	299	26	1
0	300	26	1
0	301	26	1
0	302	26	1
0	311	27	1
0	319	27.854967462435	1
0	321	28	1
0	322	28	1
0	327	28.238527676533	1
0	335	29	1
0	341	29.280308330712	1
0	343	29.460560582696	1
0	345	29.465267123188	1
0	349	30	1
0	350	30	1
0	361	30.794024996938	1
0	363	31	1
0	364	31	1
0	365	31	1
0	371	31.652417964766	1
0	373	32	1
0	379	33.87392486324	1
0	381	34	1
0	391	35.747384743097	1
0	393	36	1
0	394	36	1
0	395	36	1
0	409	37	1
0	410	37	1
0	411	37	1
0	412	37	1
0	417	37.428306947642	1
0	437	39	1
0	438	39	1
0	439	39	1
0	440	39	1
0	441	39	1
0	455	39.914676338523	1
0	457	40	1
0	458	40	1
0	472	40.365823061715	1
0	477	41	1
0	478	41	1
0	479	41	1
0	485	41.25955214002	1
0	489	41.509633634997	1
0	493	42.082095186425	1
0	497	42.383661099648	1
0	499	43	1
0	505	43.153737959194	1
0	511	44	1
0	512	44	1
0	515	44.406345484105	1
0	517	44.588884085987	1
0	525	46	1
0	527	46.472812972573	1
0	529	46.995683002661	1
0	544	48	1
0	545	48	1
0	546	48	1
0	552	48.191121568943	1
0	554	48.637374389462	1
0	558	49	1
0	577	50	1
0	578	50	1
0	579	50	1
0	580	50	1
0	589	50.002542806372	1
0	591	51	1
0	592	51	1
0	603	52.078573866814	1
0	605	52.110930671459	1
0	609	52.29088801301	1
0	611	53	1
0	617	53.15181164969	1
0	623	54	1
0	629	54.103641357232	1
0	631	54.342394230079	1
0	633	54.589253498877	1
0	635	55	1
0	636	55	1
0	655	56	1
0	656	56	1
0	657	56	1
0	658	56	1
0	659	56	1
0	671	58	1
0	672	58	1
0	679	58.103732179413	1
0	681	59	1
0	682	59	1
0	693	60	1
0	694	60	1
0	695	60	1
0	707	60.032092316292	1
0	709	61	1
0	710	61	1
0	711	61	1
0	712	61	1
0	727	62	1
0	728	62	1
0	729	62	1
0	730	62	1
0	731	62	1
0	741	64	1
0	751	64.671744842665	1
0	755	65	1
0	756	65	1
0	761	65.559246771148	1
0	763	65.559302123043	1
0	765	65.878876777915	1
0	767	66	1
0	773	67	1
0	777	67.478596219755	1
0	781	68.139099299504	1
0	785	69	1
0	793	69.693762237312	1
0	795	70	1
0	796	70	1
0	807	70.070191588833	1
0	814	71	1
0	815	71	1
0	816	71	1
0	822	71.313542366781	1
0	824	71.519900360385	1
0	826	72	1
0	836	73.167976533545	1
0	838	73.30961856834	1
0	842	73.813898501591	1
0	848	74	1
0	854	74.647276742236	1
0	856	74.827551041814	1
0	858	74.960891665086	1
0	860	75	1
0	861	75	1
0	866	76	1
0	872	77	1
0	878	77.781527613501	1
0	880	78	1
0	881	78	1
0	894	79	1
0	895	79	1
0	902	79.164844079652	1
0	904	79.502998794496	1
0	906	79.6086859686	1
0	908	80	1
0	909	80	1
0	914	81	1
0	922	82.26124448412	1
0	924	82.979490964228	1
0	926	83	1
0	934	85	1
0	935	85	1
0	936	85	1
0	946	86	1
0	947	86	1
0	952	86.773514747315	1
0	960	87.439357233951	1
0	962	88	1
0	963	88	1
0	964	88	1
0	974	89.513118697051	1
0	978	90	1
0	979	90	1
0	984	90.997361179701	1
0	986	91	1
1	11	1	1
1	14	1	1
1	20	1.92322313147	1
1	29	2	1
1	30	2	1
1	31	2	1
1	32	2	1
1	42	2.961382432133	1
1	46	3	1
1	47	3	1
1	48	3	1
1	52	3.279738572974	1
1	54	3.778610581989	1
1	58	4.190188578231	1
1	62	5	1
1	64	5.977676241669	1
1	71	7	1
1	72	7	1
1	85	9	1
1	86	9	1
1	88	9.82289811081	1
1	90	9.97762779131	1
1	94	10	1
1	113	11	1
1	114	11	1
1	115	11	1
1	116	11	1
1	117	11	1
1	141	12	1
1	142	12	1
1	143	12	1
1	144	12	1
1	146	12.872048269297	1
1	150	13	1
1	157	14	1
1	158	14	1
1	162	15	1
1	164	15.200961643511	1
1	174	16.299874111061	1
1	176	16.437902799489	1
1	178	16.890004859713	1
1	182	17	1
1	184	17.895875864879	1
1	213	19	1
1	215	19.24669911324	1
1	217	19.363654523032	1
1	219	19.745210366406	1
1	221	19.964090962913	1
1	225	20	1
1	234	21	1
1	235	21	1
1	241	21.050360343791	1
1	247	22	1
1	248	22	1
1	249	22	1
1	265	23	1
1	266	23	1
1	270	23.155681644583	1
1	272	23.601101106502	1
1	274	23.727489742927	1
1	279	24	1
1	280	24	1
1	289	25	1
1	290	25	1
1	298	25.851726939928	1
1	305	26	1
1	306	26	1
1	307	26	1
1	308	26	1
1	314	27	1
1	320	27.854967462435	1
1	325	28	1
1	326	28	1
1	328	28.238527676533	1
1	338	29	1
1	342	29.280308330712	1
1	344	29.460560582696	1
1	346	29.465267123188	1
1	353	30	1
1	354	30	1
1	362	30.794024996938	1
1	368	31	1
1	369	31	1
1	370	31	1
1	372	31.652417964766	1
1	374	32	1
1	380	33.87392486324	1
1	382	34	1
1	392	35.747384743097	1
1	398	36	1
1	399	36	1
1	400	36	1
1	413	37	1
1	414	37	1
1	415	37	1
1	416	37	1
1	418	37.428306947642	1
1	444	39	1
1	445	39	1
1	446	39	1
1	447	39	1
1	448	39	1
1	456	39.914676338523	1
1	461	40	1
1	462	40	1
1	473	40.365823061715	1
1	480	41	1
1	481	41	1
1	482	41	1
1	486	41.25955214002	1
1	490	41.509633634997	1
1	494	42.082095186425	1
1	498	42.383661099648	1
1	502	43	1
1	506	43.153737959194	1
1	513	44	1
1	514	44	1
1	516	44.406345484105	1
1	518	44.588884085987	1
1	526	46	1
1	528	46.472812972573	1
1	530	46.995683002661	1
1	549	48	1
1	550	48	1
1	551	48	1
1	553	48.191121568943	1
1	555	48.637374389462	1
1	561	49	1
1	583	50	1
1	584	50	1
1	585	50	1
1	586	50	1
1	590	50.002542806372	1
1	593	51	1
1	594	51	1
1	604	52.078573866814	1
1	606	52.110930671459	1
1	610	52.29088801301	1
1	614	53	1
1	618	53.15181164969	1
1	626	54	1
1	630	54.103641357232	1
1	632	54.342394230079	1
1	634	54.589253498877	1
1	639	55	1
1	640	55	1
1	660	56	1
1	661	56	1
1	662	56	1
1	663	56	1
1	664	56	1
1	675	58	1
1	676	58	1
1	680	58.103732179413	1
1	685	59	1
1	686	59	1
1	698	60	1
1	699	60	1
1	700	60	1
1	708	60.032092316292	1
1	715	61	1
1	716	61	1
1	717	61	1
1	718	61	1
1	732	62	1
1	733	62	1
1	734	62	1
1	735	62	1
1	736	62	1
1	744	64	1
1	752	64.671744842665	1
1	759	65	1
1	760	65	1
1	762	65.559246771148	1
1	764	65.559302123043	1
1	766	65.878876777915	1
1	770	66	1
1	774	67	1
1	778	67.478596219755	1
1	782	68.139099299504	1
1	788	69	1
1	794	69.693762237312	1
1	799	70	1
1	800	70	1
1	808	70.070191588833	1
1	819	71	1
1	820	71	1
1	821	71	1
1	823	71.313542366781	1
1	825	71.519900360385	1
1	827	72	1
1	837	73.167976533545	1
1	839	73.30961856834	1
1	843	73.813898501591	1
1	851	74	1
1	855	74.647276742236	1
1	857	74.827551041814	1
1	859	74.960891665086	1
1	864	75	1
1	865	75	1
1	869	76	1
1	875	77	1
1	879	77.781527613501	1
1	884	78	1
1	885	78	1
1	898	79	1
1	899	79	1
1	903	79.164844079652	1
1	905	79.502998794496	1
1	907	79.6086859686	1
1	912	80	1
1	913	80	1
1	915	81	1
1	923	82.26124448412	1
1	925	82.979490964228	1
1	927	83	1
1	939	85	1
1	940	85	1
1	941	85	1
1	948	86	1
1	949	86	1
1	953	86.773514747315	1
1	961	87.439357233951	1
1	965	88	1
1	966	88	1
1	967	88	1
1	975	89.513118697051	1
1	982	90	1
1	983	90	1
1	985	90.997361179701	1
1	987	91	1
