version 2
run ACBuffor-0-20121203-19:21:15-7004
attr configname ACBuffor
attr datetime 20121203-19:21:15
attr experiment ACBuffor
attr inifile omnetpp.ini
attr iterationvars ""
attr iterationvars2 $repetition=0
attr measurement ""
attr network tirtproject.AdmissionControl.ACBuffor
attr processid 7004
attr repetition 0
attr replication #0
attr resultdir results
attr runnumber 0
attr seedset 0

vector 0  ACBuffor.AC  "Arrivals AC"  ETV
attr interpolationmode  none
vector 1  ACBuffor.sink  arrivals  ETV
attr interpolationmode  none
0	5	0.898560388483	1
0	6	0.898560388483	1
0	19	1.821783519953	1
0	21	1.898560388483	1
0	22	1.898560388483	1
0	23	1.898560388483	1
0	24	1.898560388483	1
0	42	2.898560388483	1
0	43	2.898560388483	1
0	44	2.898560388483	1
0	48	3.178298961457	1
0	52	3.677170970472	1
0	56	4.088748966714	1
0	58	4.898560388483	1
0	62	5.876236630152	1
0	68	6.898560388483	1
0	69	6.898560388483	1
0	78	8.898560388483	1
0	79	8.898560388483	1
0	86	9.721458499293	1
0	88	9.876188179793	1
0	90	9.898560388483	1
0	105	10.898560388483	1
0	106	10.898560388483	1
0	107	10.898560388483	1
0	108	10.898560388483	1
0	109	10.898560388483	1
0	134	11.898560388483	1
0	135	11.898560388483	1
0	136	11.898560388483	1
0	137	11.898560388483	1
0	144	12.77060865778	1
0	146	12.898560388483	1
0	152	13.898560388483	1
0	153	13.898560388483	1
0	160	14.898560388483	1
0	162	15.099522031994	1
0	172	16.198434499544	1
0	174	16.336463187972	1
0	176	16.788565248196	1
0	180	16.898560388483	1
0	182	17.794436253362	1
0	206	18.898560388483	1
0	207	18.898560388483	1
0	214	19.145259501723	1
0	216	19.262214911515	1
0	218	19.643770754889	1
0	220	19.862651351396	1
0	222	19.898560388483	1
0	230	20.898560388483	1
0	231	20.898560388483	1
0	234	20.948920732274	1
0	242	21.898560388483	1
0	243	21.898560388483	1
0	244	21.898560388483	1
0	261	22.898560388483	1
0	262	22.898560388483	1
0	269	23.054242033066	1
0	271	23.499661494985	1
0	273	23.62605013141	1
0	275	23.898560388483	1
0	276	23.898560388483	1
0	285	24.898560388483	1
0	286	24.898560388483	1
0	297	25.750287328411	1
0	299	25.898560388483	1
0	300	25.898560388483	1
0	301	25.898560388483	1
0	302	25.898560388483	1
0	311	26.898560388483	1
0	319	27.753527850918	1
0	321	27.898560388483	1
0	322	27.898560388483	1
0	327	28.137088065016	1
0	335	28.898560388483	1
0	341	29.178868719195	1
0	343	29.359120971179	1
0	345	29.363827511671	1
0	349	29.898560388483	1
0	350	29.898560388483	1
0	361	30.692585385421	1
0	363	30.898560388483	1
0	364	30.898560388483	1
0	365	30.898560388483	1
0	371	31.550978353249	1
0	373	31.898560388483	1
0	379	33.772485251723	1
0	381	33.898560388483	1
0	391	35.64594513158	1
0	393	35.898560388483	1
0	394	35.898560388483	1
0	395	35.898560388483	1
0	409	36.898560388483	1
0	410	36.898560388483	1
0	411	36.898560388483	1
0	412	36.898560388483	1
0	417	37.326867336125	1
0	435	38.898560388483	1
0	436	38.898560388483	1
0	437	38.898560388483	1
0	438	38.898560388483	1
0	439	38.898560388483	1
0	455	39.813236727006	1
0	457	39.898560388483	1
0	458	39.898560388483	1
0	476	40.898560388483	1
0	477	40.898560388483	1
0	478	40.898560388483	1
0	484	41.158112528503	1
0	488	41.40819402348	1
0	490	41.980655574908	1
0	496	42.282221488131	1
0	498	42.898560388483	1
0	504	43.052298347677	1
0	510	43.898560388483	1
0	511	43.898560388483	1
0	514	44.304905872588	1
0	516	44.48744447447	1
0	522	45.898560388483	1
0	526	46.371373361056	1
0	528	46.894243391144	1
0	543	47.898560388483	1
0	544	47.898560388483	1
0	545	47.898560388483	1
0	551	48.089681957426	1
0	553	48.535934777945	1
0	555	48.898560388483	1
0	576	49.898560388483	1
0	577	49.898560388483	1
0	578	49.898560388483	1
0	579	49.898560388483	1
0	584	49.901103194855	1
0	590	50.898560388483	1
0	591	50.898560388483	1
0	600	51.977134255297	1
0	604	52.009491059942	1
0	608	52.189448401493	1
0	610	52.898560388483	1
0	614	53.050372038173	1
0	622	53.898560388483	1
0	628	54.002201745715	1
0	630	54.240954618562	1
0	632	54.48781388736	1
0	634	54.898560388483	1
0	635	54.898560388483	1
0	654	55.898560388483	1
0	655	55.898560388483	1
0	656	55.898560388483	1
0	657	55.898560388483	1
0	658	55.898560388483	1
0	670	57.898560388483	1
0	671	57.898560388483	1
0	678	58.002292567896	1
0	680	58.898560388483	1
0	681	58.898560388483	1
0	692	59.898560388483	1
0	693	59.898560388483	1
0	694	59.898560388483	1
0	698	59.930652704775	1
0	708	60.898560388483	1
0	709	60.898560388483	1
0	710	60.898560388483	1
0	711	60.898560388483	1
0	726	61.898560388483	1
0	727	61.898560388483	1
0	728	61.898560388483	1
0	729	61.898560388483	1
0	730	61.898560388483	1
0	740	63.898560388483	1
0	750	64.570305231148	1
0	754	64.898560388483	1
0	755	64.898560388483	1
0	760	65.457807159631	1
0	762	65.457862511526	1
0	764	65.777437166398	1
0	766	65.898560388483	1
0	772	66.898560388483	1
0	776	67.377156608238	1
0	780	68.037659687987	1
0	784	68.898560388483	1
0	792	69.592322625795	1
0	794	69.898560388483	1
0	795	69.898560388483	1
0	798	69.968751977316	1
0	813	70.898560388483	1
0	814	70.898560388483	1
0	815	70.898560388483	1
0	821	71.212102755264	1
0	823	71.418460748868	1
0	825	71.898560388483	1
0	835	73.066536922028	1
0	837	73.208178956823	1
0	841	73.712458890074	1
0	845	73.898560388483	1
0	853	74.545837130719	1
0	855	74.726111430297	1
0	857	74.859452053569	1
0	859	74.898560388483	1
0	860	74.898560388483	1
0	865	75.898560388483	1
0	871	76.898560388483	1
0	877	77.680088001984	1
0	879	77.898560388483	1
0	880	77.898560388483	1
0	893	78.898560388483	1
0	894	78.898560388483	1
0	901	79.063404468135	1
0	903	79.401559182979	1
0	905	79.507246357083	1
0	907	79.898560388483	1
0	908	79.898560388483	1
0	913	80.898560388483	1
0	921	82.159804872603	1
0	923	82.878051352711	1
0	925	82.898560388483	1
0	933	84.898560388483	1
0	934	84.898560388483	1
0	935	84.898560388483	1
0	945	85.898560388483	1
0	946	85.898560388483	1
0	951	86.672075135798	1
0	959	87.337917622434	1
0	961	87.898560388483	1
0	962	87.898560388483	1
0	963	87.898560388483	1
0	973	89.411679085534	1
0	975	89.898560388483	1
0	976	89.898560388483	1
0	983	90.895921568184	1
0	985	90.898560388483	1
0	1000	92.871781815784	1
0	1002	92.898560388483	1
0	1003	92.898560388483	1
0	1008	93.019006853097	1
0	1012	93.121975216816	1
0	1014	93.898560388483	1
0	1016	93.964111519653	1
0	1043	94.898560388483	1
0	1044	94.898560388483	1
0	1054	95.506448646543	1
0	1056	95.517941896751	1
0	1058	95.898560388483	1
0	1059	95.898560388483	1
0	1060	95.898560388483	1
0	1074	96.898560388483	1
0	1075	96.898560388483	1
0	1076	96.898560388483	1
0	1080	96.990146054744	1
0	1086	97.556040596378	1
0	1088	97.898560388483	1
0	1089	97.898560388483	1
0	1096	98.950909687641	1
0	1124	99.898560388483	1
0	1125	99.898560388483	1
0	1126	99.898560388483	1
0	1127	99.898560388483	1
0	1140	100.162398921376	1
0	1142	100.898560388483	1
0	1143	100.898560388483	1
0	1144	100.898560388483	1
0	1145	100.898560388483	1
0	1156	101.898560388483	1
0	1157	101.898560388483	1
0	1164	102.077241179018	1
0	1172	102.898560388483	1
0	1173	102.898560388483	1
0	1180	103.271254549613	1
0	1182	103.571579629898	1
0	1184	103.643998740012	1
0	1201	104.898560388483	1
0	1202	104.898560388483	1
0	1203	104.898560388483	1
0	1204	104.898560388483	1
0	1213	105.761444666131	1
0	1215	105.898560388483	1
0	1225	106.296849017224	1
0	1227	106.898560388483	1
0	1228	106.898560388483	1
0	1231	106.941757508389	1
0	1253	107.898560388483	1
0	1254	107.898560388483	1
0	1255	107.898560388483	1
0	1256	107.898560388483	1
0	1272	108.898560388483	1
1	7	0.898560388483	1
1	8	0.898560388483	1
1	20	1.821783519953	1
1	25	1.898560388483	1
1	26	1.898560388483	1
1	27	1.898560388483	1
1	28	1.898560388483	1
1	45	2.898560388483	1
1	46	2.898560388483	1
1	47	2.898560388483	1
1	49	3.178298961457	1
1	53	3.677170970472	1
1	57	4.088748966714	1
1	59	4.898560388483	1
1	63	5.876236630152	1
1	70	6.898560388483	1
1	71	6.898560388483	1
1	80	8.898560388483	1
1	81	8.898560388483	1
1	87	9.721458499293	1
1	89	9.876188179793	1
1	91	9.898560388483	1
1	110	10.898560388483	1
1	111	10.898560388483	1
1	112	10.898560388483	1
1	113	10.898560388483	1
1	114	10.898560388483	1
1	138	11.898560388483	1
1	139	11.898560388483	1
1	140	11.898560388483	1
1	141	11.898560388483	1
1	145	12.77060865778	1
1	147	12.898560388483	1
1	154	13.898560388483	1
1	155	13.898560388483	1
1	161	14.898560388483	1
1	163	15.099522031994	1
1	173	16.198434499544	1
1	175	16.336463187972	1
1	177	16.788565248196	1
1	181	16.898560388483	1
1	183	17.794436253362	1
1	208	18.898560388483	1
1	209	18.898560388483	1
1	215	19.145259501723	1
1	217	19.262214911515	1
1	219	19.643770754889	1
1	221	19.862651351396	1
1	223	19.898560388483	1
1	232	20.898560388483	1
1	233	20.898560388483	1
1	235	20.948920732274	1
1	245	21.898560388483	1
1	246	21.898560388483	1
1	247	21.898560388483	1
1	263	22.898560388483	1
1	264	22.898560388483	1
1	270	23.054242033066	1
1	272	23.499661494985	1
1	274	23.62605013141	1
1	277	23.898560388483	1
1	278	23.898560388483	1
1	287	24.898560388483	1
1	288	24.898560388483	1
1	298	25.750287328411	1
1	303	25.898560388483	1
1	304	25.898560388483	1
1	305	25.898560388483	1
1	306	25.898560388483	1
1	312	26.898560388483	1
1	320	27.753527850918	1
1	323	27.898560388483	1
1	324	27.898560388483	1
1	328	28.137088065016	1
1	336	28.898560388483	1
1	342	29.178868719195	1
1	344	29.359120971179	1
1	346	29.363827511671	1
1	351	29.898560388483	1
1	352	29.898560388483	1
1	362	30.692585385421	1
1	366	30.898560388483	1
1	367	30.898560388483	1
1	368	30.898560388483	1
1	372	31.550978353249	1
1	374	31.898560388483	1
1	380	33.772485251723	1
1	382	33.898560388483	1
1	392	35.64594513158	1
1	396	35.898560388483	1
1	397	35.898560388483	1
1	398	35.898560388483	1
1	413	36.898560388483	1
1	414	36.898560388483	1
1	415	36.898560388483	1
1	416	36.898560388483	1
1	418	37.326867336125	1
1	440	38.898560388483	1
1	441	38.898560388483	1
1	442	38.898560388483	1
1	443	38.898560388483	1
1	444	38.898560388483	1
1	456	39.813236727006	1
1	459	39.898560388483	1
1	460	39.898560388483	1
1	479	40.898560388483	1
1	480	40.898560388483	1
1	481	40.898560388483	1
1	485	41.158112528503	1
1	489	41.40819402348	1
1	491	41.980655574908	1
1	497	42.282221488131	1
1	499	42.898560388483	1
1	505	43.052298347677	1
1	512	43.898560388483	1
1	513	43.898560388483	1
1	515	44.304905872588	1
1	517	44.48744447447	1
1	523	45.898560388483	1
1	527	46.371373361056	1
1	529	46.894243391144	1
1	546	47.898560388483	1
1	547	47.898560388483	1
1	548	47.898560388483	1
1	552	48.089681957426	1
1	554	48.535934777945	1
1	556	48.898560388483	1
1	580	49.898560388483	1
1	581	49.898560388483	1
1	582	49.898560388483	1
1	583	49.898560388483	1
1	585	49.901103194855	1
1	592	50.898560388483	1
1	593	50.898560388483	1
1	601	51.977134255297	1
1	605	52.009491059942	1
1	609	52.189448401493	1
1	611	52.898560388483	1
1	615	53.050372038173	1
1	623	53.898560388483	1
1	629	54.002201745715	1
1	631	54.240954618562	1
1	633	54.48781388736	1
1	636	54.898560388483	1
1	637	54.898560388483	1
1	659	55.898560388483	1
1	660	55.898560388483	1
1	661	55.898560388483	1
1	662	55.898560388483	1
1	663	55.898560388483	1
1	672	57.898560388483	1
1	673	57.898560388483	1
1	679	58.002292567896	1
1	682	58.898560388483	1
1	683	58.898560388483	1
1	695	59.898560388483	1
1	696	59.898560388483	1
1	697	59.898560388483	1
1	699	59.930652704775	1
1	712	60.898560388483	1
1	713	60.898560388483	1
1	714	60.898560388483	1
1	715	60.898560388483	1
1	731	61.898560388483	1
1	732	61.898560388483	1
1	733	61.898560388483	1
1	734	61.898560388483	1
1	735	61.898560388483	1
1	741	63.898560388483	1
1	751	64.570305231148	1
1	756	64.898560388483	1
1	757	64.898560388483	1
1	761	65.457807159631	1
1	763	65.457862511526	1
1	765	65.777437166398	1
1	767	65.898560388483	1
1	773	66.898560388483	1
1	777	67.377156608238	1
1	781	68.037659687987	1
1	785	68.898560388483	1
1	793	69.592322625795	1
1	796	69.898560388483	1
1	797	69.898560388483	1
1	799	69.968751977316	1
1	816	70.898560388483	1
1	817	70.898560388483	1
1	818	70.898560388483	1
1	822	71.212102755264	1
1	824	71.418460748868	1
1	826	71.898560388483	1
1	836	73.066536922028	1
1	838	73.208178956823	1
1	842	73.712458890074	1
1	846	73.898560388483	1
1	854	74.545837130719	1
1	856	74.726111430297	1
1	858	74.859452053569	1
1	861	74.898560388483	1
1	862	74.898560388483	1
1	866	75.898560388483	1
1	872	76.898560388483	1
1	878	77.680088001984	1
1	881	77.898560388483	1
1	882	77.898560388483	1
1	895	78.898560388483	1
1	896	78.898560388483	1
1	902	79.063404468135	1
1	904	79.401559182979	1
1	906	79.507246357083	1
1	909	79.898560388483	1
1	910	79.898560388483	1
1	914	80.898560388483	1
1	922	82.159804872603	1
1	924	82.878051352711	1
1	926	82.898560388483	1
1	936	84.898560388483	1
1	937	84.898560388483	1
1	938	84.898560388483	1
1	947	85.898560388483	1
1	948	85.898560388483	1
1	952	86.672075135798	1
1	960	87.337917622434	1
1	964	87.898560388483	1
1	965	87.898560388483	1
1	966	87.898560388483	1
1	974	89.411679085534	1
1	977	89.898560388483	1
1	978	89.898560388483	1
1	984	90.895921568184	1
1	986	90.898560388483	1
1	1001	92.871781815784	1
1	1004	92.898560388483	1
1	1005	92.898560388483	1
1	1009	93.019006853097	1
1	1013	93.121975216816	1
1	1015	93.898560388483	1
1	1017	93.964111519653	1
1	1045	94.898560388483	1
1	1046	94.898560388483	1
1	1055	95.506448646543	1
1	1057	95.517941896751	1
1	1061	95.898560388483	1
1	1062	95.898560388483	1
1	1063	95.898560388483	1
1	1077	96.898560388483	1
1	1078	96.898560388483	1
1	1079	96.898560388483	1
1	1081	96.990146054744	1
1	1087	97.556040596378	1
1	1090	97.898560388483	1
1	1091	97.898560388483	1
1	1097	98.950909687641	1
1	1128	99.898560388483	1
1	1129	99.898560388483	1
1	1130	99.898560388483	1
1	1131	99.898560388483	1
1	1141	100.162398921376	1
1	1146	100.898560388483	1
1	1147	100.898560388483	1
1	1148	100.898560388483	1
1	1149	100.898560388483	1
1	1158	101.898560388483	1
1	1159	101.898560388483	1
1	1165	102.077241179018	1
1	1174	102.898560388483	1
1	1175	102.898560388483	1
1	1181	103.271254549613	1
1	1183	103.571579629898	1
1	1185	103.643998740012	1
1	1205	104.898560388483	1
1	1206	104.898560388483	1
1	1207	104.898560388483	1
1	1208	104.898560388483	1
1	1214	105.761444666131	1
1	1216	105.898560388483	1
1	1226	106.296849017224	1
1	1229	106.898560388483	1
1	1230	106.898560388483	1
1	1232	106.941757508389	1
1	1257	107.898560388483	1
1	1258	107.898560388483	1
1	1259	107.898560388483	1
1	1260	107.898560388483	1
