version 2
run General-0-20121202-18:53:00-7248
attr configname General
attr datetime 20121202-18:53:00
attr experiment General
attr inifile omnetpp.ini
attr iterationvars ""
attr iterationvars2 $repetition=0
attr measurement ""
attr network ""
attr processid 7248
attr repetition 0
attr replication #0
attr resultdir results
attr runnumber 0
attr seedset 0

vector 0  ACBannedIP.AC  arrivals  ETV
attr interpolationmode  none
vector 1  ACBannedIP.sink  arrivals  ETV
attr interpolationmode  none
0	2	0	1
0	4	0	1
0	8	0.977006426393	1
0	10	1	1
0	13	1	1
0	16	1	1
0	19	1	1
0	22	3	1
0	25	3	1
0	28	3	1
0	31	3	1
0	35	4.291918706321	1
0	38	4.31234429472	1
0	40	5	1
0	43	5	1
0	47	5.818128553357	1
0	50	6.553092974546	1
0	52	8	1
0	55	9	1
0	58	9	1
0	61	9	1
0	64	9	1
0	67	9	1
0	70	9	1
0	74	9.447513452533	1
0	77	9.466482021734	1
0	79	10	1
0	82	10	1
0	86	10.426029999102	1
0	89	11.622137798559	1
0	92	11.858344504641	1
0	94	12	1
0	97	12	1
0	100	12	1
0	103	12	1
0	106	12	1
0	110	12.310446564865	1
0	112	14	1
0	115	15	1
0	118	15	1
0	121	15	1
0	124	15	1
0	127	15	1
0	130	15	1
0	133	16	1
0	136	16	1
0	139	16	1
0	142	17	1
0	145	17	1
0	148	17	1
0	152	17.670546915108	1
0	154	18	1
0	158	18.645648849264	1
0	160	19	1
0	164	19.358232442597	1
0	167	19.69064268356	1
0	170	19.817031319985	1
0	172	20	1
0	176	20.061426768066	1
0	179	20.772674705283	1
0	181	21	1
0	184	21	1
0	187	21	1
0	190	21	1
0	193	22	1
0	196	22	1
0	199	23	1
0	203	23.421930633959	1
0	206	23.426637174451	1
0	208	24	1
0	211	24	1
0	214	24	1
0	217	25	1
0	220	25	1
0	223	25	1
0	226	26	1
0	230	26.701780352165	1
0	232	27	1
0	235	28	1
0	238	28	1
0	241	30	1
0	244	30	1
0	248	30.544786935408	1
0	250	31	1
0	253	31	1
0	256	32	1
0	259	32	1
0	262	33	1
0	265	33	1
0	268	33	1
0	271	33	1
0	274	33	1
0	278	33.670255293066	1
0	280	34	1
0	284	34.632630348837	1
0	286	35	1
0	289	35	1
0	292	35	1
0	295	35	1
0	299	35.526359427142	1
0	302	35.9845323111	1
0	304	37	1
0	307	37	1
0	310	38	1
0	314	38.209446968325	1
0	316	39	1
0	319	39	1
0	323	40.049179753402	1
0	325	41	1
0	329	41.933108639988	1
0	331	43	1
0	334	44	1
0	337	44	1
0	340	44	1
0	343	45	1
0	347	45.982955478792	1
0	349	46	1
0	352	47	1
0	355	47	1
0	358	47	1
0	361	47	1
0	364	47	1
0	367	47	1
0	370	47	1
0	373	47	1
0	376	47	1
0	379	47	1
1	5	0	1
1	6	0	1
1	9	0.977006426393	1
1	12	1	1
1	15	1	1
1	18	1	1
1	21	1	1
1	24	3	1
1	27	3	1
1	30	3	1
1	33	3	1
1	36	4.291918706321	1
1	39	4.31234429472	1
1	42	5	1
1	45	5	1
1	48	5.818128553357	1
1	51	6.553092974546	1
1	54	8	1
1	57	9	1
1	60	9	1
1	63	9	1
1	66	9	1
1	69	9	1
1	72	9	1
1	75	9.447513452533	1
1	78	9.466482021734	1
1	81	10	1
1	84	10	1
1	87	10.426029999102	1
1	90	11.622137798559	1
1	93	11.858344504641	1
1	96	12	1
1	99	12	1
1	102	12	1
1	105	12	1
1	108	12	1
1	111	12.310446564865	1
1	114	14	1
1	117	15	1
1	120	15	1
1	123	15	1
1	126	15	1
1	129	15	1
1	132	15	1
1	135	16	1
1	138	16	1
1	141	16	1
1	144	17	1
1	147	17	1
1	150	17	1
1	153	17.670546915108	1
1	156	18	1
1	159	18.645648849264	1
1	162	19	1
1	165	19.358232442597	1
1	168	19.69064268356	1
1	171	19.817031319985	1
1	174	20	1
1	177	20.061426768066	1
1	180	20.772674705283	1
1	183	21	1
1	186	21	1
1	189	21	1
1	192	21	1
1	195	22	1
1	198	22	1
1	201	23	1
1	204	23.421930633959	1
1	207	23.426637174451	1
1	210	24	1
1	213	24	1
1	216	24	1
1	219	25	1
1	222	25	1
1	225	25	1
1	228	26	1
1	231	26.701780352165	1
1	234	27	1
1	237	28	1
1	240	28	1
1	243	30	1
1	246	30	1
1	249	30.544786935408	1
1	252	31	1
1	255	31	1
1	258	32	1
1	261	32	1
1	264	33	1
1	267	33	1
1	270	33	1
1	273	33	1
1	276	33	1
1	279	33.670255293066	1
1	282	34	1
1	285	34.632630348837	1
1	288	35	1
1	291	35	1
1	294	35	1
1	297	35	1
1	300	35.526359427142	1
1	303	35.9845323111	1
1	306	37	1
1	309	37	1
1	312	38	1
1	315	38.209446968325	1
1	318	39	1
1	321	39	1
1	324	40.049179753402	1
1	327	41	1
1	330	41.933108639988	1
1	333	43	1
1	336	44	1
1	339	44	1
1	342	44	1
1	345	45	1
1	348	45.982955478792	1
1	351	46	1
1	354	47	1
1	357	47	1
1	360	47	1
1	363	47	1
1	366	47	1
1	369	47	1
1	372	47	1
1	375	47	1
1	378	47	1
1	381	47	1
