version 2
run General-0-20121202-18:16:19-7200
attr configname General
attr datetime 20121202-18:16:19
attr experiment General
attr inifile omnetpp.ini
attr iterationvars ""
attr iterationvars2 $repetition=0
attr measurement ""
attr network ""
attr processid 7200
attr repetition 0
attr replication #0
attr resultdir results
attr runnumber 0
attr seedset 0

vector 0  PoissonGeneratorNetwork.sink  arrivals  ETV
attr interpolationmode  none
0	1	0	1
0	3	0	1
0	5	1	1
0	7	1	1
0	9	2	1
0	11	3	1
0	13	4	1
0	15	4	1
0	17	4	1
0	19	4	1
0	21	5	1
0	23	6	1
0	25	6	1
0	27	6	1
0	29	8	1
0	31	8	1
0	33	8	1
0	35	8	1
0	37	10	1
0	39	10	1
0	41	10	1
0	43	11	1
0	45	11	1
0	47	14	1
0	49	17	1
0	51	19	1
0	53	19	1
0	55	20	1
0	57	20	1
0	59	21	1
0	61	21	1
