version 2
run OnOff-0-20121027-11:04:32-6794
attr configname OnOff
attr datetime 20121027-11:04:32
attr experiment OnOff
attr inifile omnetpp.ini
attr iterationvars ""
attr iterationvars2 $repetition=0
attr measurement ""
attr network OnOff
attr processid 6794
attr repetition 0
attr replication #0
attr resultdir results
attr runnumber 0
attr seedset 0

vector 0  OnOff.Node_e  arrivals  ETV
attr interpolationmode  none
0	2	0	1
0	4	0.07435166143	1
0	6	0.809603330884	1
0	8	1.000512234058	1
0	10	1.760150464841	1
0	12	2.836990544691	1
0	14	3.156876681545	1
0	16	3.730122538042	1
0	18	3.859251092271	1
0	20	3.971215837265	1
0	22	4.365871154303	1
0	24	4.671982231084	1
0	26	4.938776392652	1
0	28	5.338803407879	1
0	30	5.492568987908	1
0	32	5.524063225381	1
0	34	6.456398150571	1
0	36	6.91101448645	1
0	38	8.039354403135	1
0	40	8.241527358742	1
0	42	8.4730387906	1
0	44	8.484266870066	1
0	46	8.534699881332	1
0	48	9.071848631179	1
0	50	9.387290272704	1
0	52	10.170913495428	1
0	54	11.04391265498	1
0	56	11.440622618368	1
0	58	11.506798666192	1
0	60	12.373666536315	1
0	62	12.529626585775	1
0	64	13.400867929486	1
0	66	14.058521752765	1
0	68	14.761249889898	1
0	70	14.784348729728	1
0	72	15.144811801283	1
0	74	16.545273301048	1
0	76	16.635010171461	1
0	78	16.789606135223	1
0	80	16.868908863576	1
0	82	19.791443895354	1
0	84	20.206871760261	1
0	86	20.552286152606	1
0	88	20.922568714384	1
0	90	21.342215935503	1
0	92	21.452199719335	1
0	94	21.719605977457	1
0	96	22.381686727936	1
0	98	22.423767055551	1
0	100	22.932034634475	1
0	102	23.356703978586	1
0	104	23.696526628274	1
0	106	24.397322453059	1
0	108	24.405291208104	1
0	110	25.824311395183	1
0	112	26.17366305805	1
0	114	26.314508844024	1
0	116	26.341709704261	1
0	118	26.39902654217	1
0	120	26.657964156093	1
0	122	27.793737889499	1
0	124	28.104428639811	1
0	126	28.520237775582	1
0	128	28.73238886873	1
0	130	29.294344760519	1
0	132	29.398092894084	1
0	134	29.442800456398	1
0	136	29.827380991652	1
0	138	30.544624680092	1
0	140	30.773013728727	1
0	142	31.139334026517	1
0	144	31.245392238619	1
0	146	31.290643711324	1
0	148	31.447513907523	1
0	150	32.986658846612	1
0	152	36.102946303516	1
0	154	36.727327777766	1
0	156	36.887709915496	1
0	158	36.995348183648	1
0	160	37.135613803189	1
0	162	37.934574549531	1
0	164	38.095735435048	1
0	166	38.25013307658	1
0	168	39.249028011323	1
0	170	39.255190421613	1
0	172	39.932233002088	1
0	174	39.973741232633	1
0	176	40.243567091083	1
0	178	42.696967032486	1
0	180	43.873314446673	1
0	182	43.927044186999	1
0	184	44.204463764738	1
0	186	44.460666752782	1
0	188	44.798886638433	1
0	190	45.522371298857	1
0	192	46.774977970017	1
0	194	46.807987894988	1
0	196	47.289665973677	1
0	198	47.289996206174	1
0	200	48.185220919635	1
0	202	48.664069319739	1
0	204	49.212979054673	1
0	206	50.264809638866	1
0	208	50.316823875228	1
0	210	50.841906781916	1
0	212	51.879550034522	1
0	214	53.190919797504	1
0	216	53.55439310809	1
0	218	53.786847235791	1
0	220	54.687478927555	1
0	222	55.841518411643	1
0	224	56.046493114622	1
0	226	56.257581054602	1
0	228	56.381193200438	1
0	230	58.303429961827	1
0	232	58.732048677038	1
0	234	59.891184290545	1
0	236	60.058996727582	1
0	238	60.292293166261	1
0	240	60.366216430672	1
0	242	60.980178919797	1
0	244	62.316461905249	1
0	246	62.318389369478	1
0	248	62.328105776017	1
0	250	63.244985298491	1
0	252	63.75727958082	1
0	254	63.87637001865	1
0	256	64.633834134484	1
0	258	64.872142744778	1
0	260	65.905952581566	1
0	262	66.063434648258	1
0	264	66.482063053905	1
0	266	66.782632071256	1
0	268	67.55418365679	1
0	270	67.807756603617	1
0	272	68.13317710168	1
0	274	69.651573891534	1
0	276	69.711100543802	1
0	278	70.710786421564	1
0	280	70.95254727511	1
0	282	71.043498376858	1
0	284	72.191303221349	1
0	286	72.302148888258	1
0	288	72.535360390286	1
0	290	72.717553435288	1
0	292	72.81160811156	1
0	294	74.320942398885	1
0	296	74.631340426414	1
0	298	75.029278124814	1
0	300	75.275058831402	1
0	302	75.827638630367	1
0	304	75.965035351474	1
0	306	76.399345865276	1
0	308	76.515494920105	1
0	310	76.847570465559	1
0	312	77.313580719251	1
0	314	78.136111954846	1
0	316	79.033933642816	1
0	318	79.589544043891	1
0	320	80.564977672431	1
0	322	81.848278752934	1
0	324	81.885954296853	1
0	326	82.027578456522	1
0	328	82.233834027305	1
0	330	82.571148303808	1
0	332	82.754939229917	1
0	334	83.018845501723	1
0	336	83.300007780952	1
0	338	83.740247817699	1
0	340	84.622999698654	1
0	342	84.826890975474	1
0	344	84.957259510687	1
0	346	87.235045132038	1
0	348	87.429139095883	1
0	350	88.618723185956	1
0	352	88.773392003269	1
0	354	88.966746621754	1
0	356	89.472498842009	1
0	358	90.119170166419	1
0	360	90.41359719686	1
0	362	90.982530270511	1
0	364	91.019705611343	1
0	366	91.033502826325	1
0	368	91.177809035456	1
0	370	91.822030820117	1
0	372	92.114676000417	1
0	374	93.394693350551	1
0	376	95.223792922871	1
0	378	95.395861726131	1
0	380	96.742861327053	1
0	382	96.846876166766	1
0	384	97.171504332342	1
0	386	97.581497127857	1
0	388	98.147496321981	1
0	390	98.503838609118	1
0	392	99.020410029082	1
0	394	99.252048299386	1
0	396	100.654033278459	1
0	398	100.774237061837	1
0	400	102.171578161813	1
0	402	102.458285405811	1
0	404	103.651094264504	1
0	406	103.899927915955	1
0	408	104.128546601245	1
0	410	105.395630455617	1
0	412	105.412607756963	1
0	414	107.122343057007	1
0	416	107.360705313314	1
0	418	107.44887406796	1
0	420	108.907749136008	1
0	422	109.067962217198	1
0	424	109.079616619588	1
0	426	109.201550183455	1
0	428	110.637128074236	1
0	430	111.634733162203	1
0	432	111.856456640923	1
0	434	113.313331712198	1
0	436	114.112473969403	1
0	438	114.411281886988	1
0	440	114.626037431394	1
0	442	115.931791706002	1
0	444	115.932401298623	1
0	446	116.260256976524	1
0	448	116.337138144013	1
0	450	116.41136797431	1
0	452	116.454570485122	1
0	454	117.164624940788	1
0	456	117.333422367749	1
0	458	117.460347638404	1
0	460	117.678932121218	1
0	462	118.517010481303	1
0	464	119.201867696379	1
0	466	119.715667892977	1
0	468	119.801269730916	1
0	470	120.114475420188	1
0	472	120.22385557271	1
0	474	121.002508300763	1
0	476	121.188776051558	1
0	478	121.215262130693	1
0	480	122.802537707933	1
0	482	123.852662048364	1
0	484	123.904280035824	1
0	486	124.088793718856	1
0	488	124.33097624024	1
0	490	124.540511040704	1
0	492	124.772870701738	1
0	494	125.40325234157	1
0	496	125.563058260985	1
0	498	125.668088215798	1
0	500	125.764903934963	1
0	502	126.434318289695	1
0	504	126.518436377519	1
0	506	127.099895015284	1
0	508	128.383856536064	1
0	510	129.634351816345	1
0	512	129.66014054414	1
0	514	129.703796402585	1
0	516	129.973605796247	1
0	518	130.451164647782	1
0	520	130.57272237295	1
0	522	130.740321832893	1
0	524	133.227678214221	1
0	526	134.170060649474	1
0	528	135.042279969	1
0	530	135.111468587204	1
0	532	135.174469254653	1
0	534	135.330399019936	1
0	536	135.508906164789	1
0	538	135.906251023545	1
0	540	136.177123368739	1
0	542	136.524375870998	1
0	544	136.729804857063	1
0	546	136.943401368142	1
0	548	137.237384398401	1
0	550	137.593369042636	1
0	552	137.680388956232	1
0	554	138.768378370929	1
0	556	139.176078657568	1
0	558	139.395239776849	1
0	560	139.460636942501	1
0	562	141.664428396122	1
0	564	142.007879358829	1
0	566	142.046884387052	1
0	568	142.119363808094	1
0	570	142.578383295138	1
0	572	142.763504734335	1
0	574	144.810176958633	1
0	576	145.125640608175	1
0	578	145.553300348584	1
0	580	145.846027577773	1
0	582	145.873887224103	1
0	584	147.387960935067	1
0	586	149.357888733989	1
0	588	151.142280222781	1
0	590	151.912011986723	1
0	592	152.429647244781	1
0	594	152.516512190184	1
0	596	152.599718593175	1
0	598	153.557681419562	1
0	600	154.513948360255	1
0	602	155.185955914255	1
0	604	156.281155502303	1
0	606	157.268772157517	1
0	608	157.616924687948	1
0	610	158.975954290551	1
0	612	158.999221040768	1
0	614	159.354503029429	1
0	616	160.865136420256	1
0	618	161.037295684271	1
0	620	161.12388461107	1
0	622	161.650007351608	1
0	624	161.73715850731	1
0	626	163.197909515631	1
0	628	163.81061834869	1
0	630	163.825314291867	1
0	632	163.870071556073	1
0	634	164.691412352393	1
0	636	164.736659581401	1
0	638	165.043375771465	1
0	640	165.075572343244	1
0	642	165.216728996889	1
0	644	165.24343879418	1
0	646	165.794958918266	1
0	648	167.058899930438	1
0	650	168.206207443276	1
0	652	168.315868949206	1
0	654	168.702947163751	1
0	656	169.506999310127	1
0	658	169.65038282172	1
0	660	170.832499789529	1
0	662	172.40404667703	1
0	664	172.518227397333	1
0	666	172.745125371282	1
0	668	173.047482109536	1
0	670	173.330923008153	1
0	672	174.387504320642	1
0	674	174.574059233986	1
0	676	175.252053652594	1
0	678	175.293735179521	1
0	680	175.385610459561	1
0	682	176.013958357315	1
0	684	176.131062111812	1
0	686	176.420915459044	1
0	688	176.709976387279	1
0	690	176.753328814406	1
0	692	176.778586862454	1
0	694	177.053946106082	1
0	696	179.413322282854	1
0	698	179.634136619036	1
0	700	179.856004090924	1
0	702	180.702517900698	1
0	704	181.187989243028	1
0	706	181.589785357787	1
0	708	182.222638855729	1
0	710	183.196574182147	1
0	712	183.443239349305	1
0	714	184.64205163175	1
0	716	184.858267850683	1
0	718	186.393933572264	1
0	720	186.780290349743	1
0	722	187.614966785436	1
0	724	188.052487884544	1
0	726	188.073765916898	1
0	728	189.240517706134	1
0	730	189.464399166414	1
0	732	190.349521067291	1
0	734	190.648615518642	1
0	736	191.11771805921	1
0	738	191.992125915208	1
0	740	192.855780640136	1
0	742	193.04412589409	1
0	744	193.483458519754	1
0	746	193.575589030493	1
0	748	194.438154923584	1
0	750	194.803299491273	1
0	752	195.106374390385	1
0	754	195.334858002103	1
0	756	195.589226023631	1
0	758	195.760925091999	1
0	760	197.739026363804	1
0	762	198.261010771576	1
0	764	198.613991071256	1
0	766	199.355323998802	1
0	768	199.717187984174	1
0	770	199.85731230537	1
0	772	199.900512059961	1
0	774	200.145964716975	1
0	776	201.71853823746	1
0	778	202.296686511081	1
0	780	202.57673875016	1
0	782	203.425080205849	1
0	784	203.483976847345	1
0	786	205.172497698433	1
0	788	205.790513639145	1
0	790	206.36981551588	1
0	792	206.509064768516	1
0	794	206.600683953629	1
0	796	206.880287978648	1
0	798	206.889809669503	1
0	800	206.982827758059	1
0	802	207.446818649884	1
0	804	207.920814169262	1
0	806	207.96308301932	1
0	808	208.830998292545	1
0	810	208.913217990528	1
0	812	208.914898210941	1
0	814	209.115802300619	1
0	816	211.15466514274	1
0	818	212.279661878366	1
0	820	212.605068856901	1
0	822	212.616551148185	1
0	824	212.625330545793	1
0	826	213.76963237325	1
0	828	213.899610419596	1
0	830	215.611163115646	1
0	832	215.872144529454	1
0	834	216.267065425789	1
0	836	216.270533316387	1
0	838	218.630033836303	1
0	840	218.94356770528	1
0	842	219.062151639973	1
0	844	219.721234692634	1
0	846	220.399391507697	1
0	848	221.603447792192	1
0	850	221.62133455462	1
0	852	221.633756886965	1
0	854	222.486650726456	1
0	856	222.672969226677	1
0	858	222.681916003643	1
0	860	222.813209137552	1
0	862	223.495446494354	1
0	864	223.59437529911	1
0	866	224.009610184743	1
0	868	224.494627373917	1
0	870	224.890179540124	1
0	872	224.899458191565	1
0	874	225.518901658258	1
0	876	227.418799934953	1
0	878	227.823843565651	1
0	880	227.863267860558	1
0	882	228.764436513947	1
0	884	228.949319413686	1
0	886	229.572847591162	1
0	888	229.672878516835	1
0	890	230.113987799495	1
0	892	230.892883767436	1
0	894	231.716168673383	1
0	896	231.826046695069	1
0	898	232.130032771494	1
0	900	232.746077629393	1
0	902	232.953720197842	1
0	904	233.894713677655	1
0	906	234.38754916911	1
0	908	235.836159638464	1
0	910	236.339136236943	1
0	912	237.100881464489	1
0	914	237.827540689252	1
0	916	237.93739532544	1
0	918	238.340912709419	1
0	920	238.470642303767	1
0	922	239.179914221255	1
0	924	239.88348119789	1
0	926	240.077813440839	1
0	928	240.551013489547	1
0	930	242.616496416466	1
0	932	244.019114591982	1
0	934	244.611727486858	1
0	936	244.745549205836	1
0	938	245.425328401884	1
0	940	245.817484324141	1
0	942	246.95840361202	1
0	944	247.408180629634	1
0	946	247.461814601978	1
0	948	248.477882052457	1
0	950	248.758807666273	1
0	952	249.346281391492	1
0	954	249.866863667767	1
0	956	250.02560127192	1
0	958	250.70332292261	1
0	960	250.849050634494	1
0	962	250.928485062347	1
0	964	250.964703208878	1
0	966	251.126850388927	1
0	968	251.133127592443	1
0	970	251.133856217214	1
0	972	252.274993360804	1
0	974	252.497663655663	1
0	976	252.522104649873	1
0	978	252.604164918695	1
0	980	253.272612161498	1
0	982	253.421418509381	1
0	984	253.648055142924	1
0	986	254.265462419832	1
0	988	254.7297122333	1
0	990	255.107300036004	1
0	992	255.271505800602	1
0	994	255.358677958936	1
0	996	255.477911411743	1
0	998	255.626574375717	1
0	1000	257.739876808132	1
0	1002	257.858567640277	1
0	1004	258.544978765323	1
0	1006	258.615241573986	1
0	1008	259.056251507074	1
0	1010	260.341926106706	1
0	1012	260.877244631629	1
0	1014	261.617958515796	1
0	1016	262.249555469389	1
0	1018	262.685654257116	1
0	1020	263.874437832072	1
0	1022	264.462744026997	1
0	1024	264.774930769261	1
0	1026	264.890585111342	1
0	1028	265.301274720939	1
0	1030	265.572803285941	1
0	1032	266.846364171463	1
0	1034	267.150451477494	1
0	1036	267.205552770128	1
0	1038	267.696725568554	1
0	1040	267.968430155089	1
0	1042	268.265384439928	1
0	1044	269.267141736233	1
0	1046	269.535179705372	1
0	1048	271.367596381184	1
0	1050	272.312010467015	1
0	1052	272.639256624292	1
0	1054	274.654193226951	1
0	1056	275.171206833803	1
0	1058	275.701848018566	1
0	1060	276.288801952847	1
0	1062	276.728753355875	1
0	1064	276.739985398359	1
0	1066	276.916282078511	1
0	1068	276.922444141353	1
0	1070	277.900707857617	1
0	1072	278.067931917614	1
0	1074	278.087880498907	1
