version 2
run OnOff-0-20121027-09:30:53-896
attr configname OnOff
attr datetime 20121027-09:30:53
attr experiment OnOff
attr inifile omnetpp.ini
attr iterationvars ""
attr iterationvars2 $repetition=0
attr measurement ""
attr network OnOff
attr processid 896
attr repetition 0
attr replication #0
attr resultdir results
attr runnumber 0
attr seedset 0

vector 0  OnOff.Node_e  arrivals  ETV
attr interpolationmode  none
0	2	0	1
0	4	0.07435166143	1
0	6	0.809603330884	1
